# vtk DataFile Version 5.1
vtk output
ASCII
DATASET POLYDATA
POINTS 1597 float
-1.93548 0.0241064 0.321678 -1.93548 0 0.32258 -1.83174 0 0.321678 
-1.93548 -0.0241064 0.321678 -1.83174 -0.024039 0.320779 -1.83174 -0.0479437 0.318085 
-1.72804 -0.0475405 0.315411 -1.72804 -0.0709782 0.310976 -1.62439 -0.0699753 0.306582 
-1.62439 -0.0926905 0.300495 -1.52084 -0.0908312 0.294467 -1.52084 -0.112583 0.286856 
-1.41742 -0.109621 0.279309 -1.41742 -0.130187 0.270336 -1.31415 -0.12589 0.261413 
-1.31415 -0.145073 0.251274 -1.21107 -0.139225 0.241144 -1.21107 -0.156856 0.230065 
-1.10821 -0.149258 0.218921 -1.10821 -0.165201 0.207155 -1.00559 -0.155678 0.195214 
-1.00559 -0.169831 0.183034 -0.903263 -0.15823 0.170532 -0.903263 -0.170532 0.15823 
-0.801244 -0.156727 0.145422 -0.801244 -0.167157 0.133303 -0.699568 -0.151049 0.120458 
-0.699568 -0.159629 0.108833 -0.598266 -0.141149 0.0962337 -0.598266 -0.147946 0.0854166 
-0.497368 -0.127054 0.0733547 -0.497368 -0.132181 0.0636548 -0.396904 -0.108869 0.0524284 
-0.396904 -0.112482 0.044146 -0.296905 -0.0867747 0.0340566 -0.296905 -0.0890771 0.0274767 
-0.197402 -0.0610304 0.0188254 -0.197402 -0.0622665 0.0142119 -0.0984233 -0.0319697 0.00729687 
-0.0984233 -0.0324256 0.00488737 0 0 0 -0.0984233 -0.0327002 0.00245053 
-0.0984233 -0.0327918 0 -0.197402 -0.0636893 0.00477284 -0.197402 -0.0638678 0 
-0.296905 -0.0929579 0.00696624 -0.296905 -0.0932186 0 -0.396904 -0.120497 0.00903002 
-0.396904 -0.120835 0 -0.497368 -0.146299 0.0109636 -0.497368 -0.146709 0 
-0.598266 -0.170355 0.0127664 -0.598266 -0.170833 0 -0.699568 -0.192659 0.0144378 
-0.699568 -0.193199 0 -0.801244 -0.213204 0.0159774 -0.801244 -0.213801 0 
-0.903263 -0.231982 0.0173847 -0.903263 -0.232633 0 -1.00559 -0.24899 0.0186592 
-1.00559 -0.249688 0 -1.10821 -0.264221 0.0198006 -1.10821 -0.264962 0 
-1.21107 -0.277671 0.0208085 -1.21107 -0.278449 0 -1.31415 -0.289335 0.0216827 
-1.31415 -0.290147 0 -1.41742 -0.299212 0.0224228 -1.41742 -0.300051 0 
-1.52084 -0.307296 0.0230287 -1.52084 -0.308158 0 -1.62439 -0.313587 0.0235001 
-1.62439 -0.314466 0 -1.72804 -0.318081 0.0238369 -1.72804 -0.318973 0 
-1.83174 -0.320779 0.024039 -1.83174 -0.321678 0 -1.93548 -0.321678 0.0241064 
-1.93548 -0.32258 0 -1.93548 0.048078 0.318977 -1.83174 0.024039 0.320779 
-1.72804 0 0.318973 -1.72804 -0.0238369 0.318081 -1.62439 -0.0235001 0.313587 
-1.62439 -0.0468687 0.310954 -1.52084 -0.0459286 0.304716 -1.52084 -0.0685716 0.300432 
-1.41742 -0.0667676 0.292528 -1.41742 -0.0884415 0.28672 -1.31415 -0.0855222 0.277256 
-1.31415 -0.106002 0.27009 -1.21107 -0.101729 0.259201 -1.21107 -0.120815 0.250874 
-1.10821 -0.114962 0.238722 -1.10821 -0.132481 0.229463 -1.00559 -0.124844 0.216236 
-1.00559 -0.140654 0.206302 -0.903263 -0.131047 0.19221 -0.903263 -0.145044 0.18188 
-0.801244 -0.133303 0.167157 -0.801244 -0.145422 0.156727 -0.699568 -0.131409 0.141625 
-0.699568 -0.141625 0.131409 -0.598266 -0.12523 0.116196 -0.598266 -0.133563 0.106513 
-0.497368 -0.114702 0.0914718 -0.497368 -0.121217 0.0826443 -0.396904 -0.0998387 0.0680689 
-0.396904 -0.104646 0.0604176 -0.296905 -0.0807296 0.0466093 -0.296905 -0.083987 0.040446 
-0.197402 -0.0575429 0.0277112 -0.197402 -0.0594529 0.0233335 -0.0984233 -0.0305251 0.0119802 
-0.0984233 -0.031335 0.00966557 -1.93548 0.0717808 0.314492 -1.83174 0.0479437 0.318085 
-1.72804 0.0238369 0.318081 -1.62439 0 0.314466 -1.52084 -0.0230287 0.307296 
-1.41742 -0.0447202 0.296699 -1.31415 -0.0645637 0.282872 -1.21107 -0.0820743 0.266078 
-1.10821 -0.0968013 0.246646 -1.00559 -0.108335 0.224961 -0.903263 -0.116316 0.201466 
-0.801244 -0.120439 0.176651 -0.699568 -0.120458 0.151049 -0.598266 -0.116196 0.12523 
-0.497368 -0.107546 0.0997877 -0.396904 -0.0944727 0.0753395 -0.296905 -0.0770208 0.0525119 
-0.197402 -0.0553112 0.0319339 -0.0984233 -0.0295444 0.0142279 -1.93548 0.0950821 0.308249 
-1.83174 0.0715801 0.313613 -1.72804 0.0475405 0.315411 -1.62439 0.0235001 0.313587 
-1.52084 0 0.308158 -1.41742 -0.0224228 0.299212 -1.31415 -0.0432441 0.286906 
-1.21107 -0.0619608 0.271468 -1.10821 -0.0780988 0.25319 -1.00559 -0.0912212 0.232428 
-0.903263 -0.100936 0.209595 -0.801244 -0.106901 0.185157 -0.699568 -0.108833 0.159629 
-0.598266 -0.106513 0.133563 -0.497368 -0.0997877 0.107546 -0.396904 -0.0885784 0.0821888 
-0.296905 -0.0728812 0.0581208 -0.197402 -0.0527701 0.035978 -0.0984233 -0.0283986 0.0163959 
-1.93548 0.117852 0.300281 -1.83174 0.0948163 0.307387 -1.72804 0.0709782 0.310976 
-1.62439 0.0468687 0.310954 -1.52084 0.0230287 0.307296 -1.41742 0 0.300051 
-1.31415 -0.0216827 0.289335 -1.21107 -0.0415007 0.275339 -1.10821 -0.0589595 0.258318 
-1.00559 -0.0735968 0.238595 -0.903263 -0.0849903 0.216552 -0.801244 -0.0927649 0.192628 
-0.699568 -0.0965997 0.167316 -0.598266 -0.0962337 0.141149 -0.497368 -0.0914718 0.114702 
-0.396904 -0.0821888 0.0885784 -0.296905 -0.068334 0.0634047 -0.197402 -0.0499339 0.0398209 
-0.0984233 -0.0270939 0.0184723 -1.93548 0.139962 0.290635 -1.83174 0.139571 0.289822 
-1.83174 0.117522 0.299442 -1.72804 0.116534 0.296924 -1.72804 0.094019 0.304802 
-1.62439 0.0926905 0.300495 -1.62439 0.0699753 0.306582 -1.52084 0.0685716 0.300432 
-1.52084 0.0459286 0.304716 -1.41742 0.0447202 0.296699 -1.41742 0.0224228 0.299212 
-1.31415 0.0216827 0.289335 -1.31415 0 0.290147 -1.21107 0 0.278449 
-1.21107 -0.0208085 0.277671 -1.10821 -0.0198006 0.264221 -1.10821 -0.0394905 0.262002 
-1.00559 -0.037214 0.246899 -1.00559 -0.0555608 0.243428 -0.903263 -0.0517656 0.2268 
-0.903263 -0.0685697 0.222298 -0.801244 -0.063019 0.204303 -0.801244 -0.0781104 0.199022 
-0.699568 -0.0705837 0.179844 -0.699568 -0.0838261 0.174067 -0.598266 -0.0741217 0.153915 
-0.598266 -0.0854166 0.147946 -0.497368 -0.0733547 0.127054 -0.497368 -0.0826443 0.121217 
-0.396904 -0.0680689 0.0998387 -0.396904 -0.0753395 0.0944727 -0.296905 -0.0581208 0.0728812 
-0.296905 -0.0634047 0.0683341 -0.197402 -0.0434412 0.0468184 -0.197402 -0.0468184 0.0434412 
-0.0984233 -0.0240381 0.0223041 -0.0984233 -0.0256377 0.0204454 -1.93548 0.16129 0.279362 
-1.93548 0.181716 0.266528 -1.83174 0.160839 0.278582 -1.72804 0.138397 0.287385 
-1.62439 0.114887 0.292728 -1.52084 0.0908312 0.294467 -1.41742 0.0667676 0.292528 
-1.31415 0.0432441 0.286906 -1.21107 0.0208085 0.277671 -1.10821 0 0.264962 
-1.00559 -0.0186592 0.24899 -0.903263 -0.0346721 0.230034 -0.801244 -0.0475753 0.208441 
-0.699568 -0.0569465 0.184616 -0.598266 -0.0624123 0.159024 -0.497368 -0.0636548 0.132181 
-0.396904 -0.0604176 0.104646 -0.296905 -0.0525119 0.0770208 -0.197402 -0.0398209 0.0499339 
-0.0984233 -0.0223041 0.0240381 -1.93548 0.201125 0.252203 -1.83174 0.200563 0.251498 
-1.83174 0.181208 0.265783 -1.72804 0.179684 0.263548 -1.72804 0.159487 0.276239 
-1.62439 0.157233 0.272336 -1.62439 0.136442 0.283324 -1.52084 0.133705 0.277641 
-1.52084 0.112583 0.286856 -1.41742 0.109621 0.279309 -1.41742 0.0884415 0.28672 
-1.31415 0.0855222 0.277256 -1.31415 0.0645637 0.282872 -1.21107 0.0619608 0.271468 
-1.21107 0.0415007 0.275339 -1.10821 0.0394905 0.262002 -1.10821 0.0198006 0.264221 
-1.00559 0.0186592 0.24899 -1.00559 0 0.249688 -0.903263 0 0.232633 
-0.903263 -0.0173847 0.231982 -0.801244 -0.0159774 0.213204 -0.801244 -0.0318654 0.211413 
-0.699568 -0.0287949 0.191042 -0.699568 -0.0429909 0.188355 -0.598266 -0.038014 0.16655 
-0.598266 -0.050354 0.163244 -0.497368 -0.0432433 0.140191 -0.497368 -0.0535989 0.136568 
-0.396904 -0.044146 0.112482 -0.396904 -0.0524284 0.108869 -0.296905 -0.040446 0.083987 
-0.296905 -0.0466093 0.0807296 -0.197402 -0.0319339 0.0553112 -0.197402 -0.035978 0.0527701 
-0.0984233 -0.0184723 0.0270939 -0.0984233 -0.0204454 0.0256377 -1.93548 0.21941 0.236468 
-1.93548 0.236468 0.21941 -1.83174 0.218797 0.235807 -1.72804 0.198877 0.249383 
-1.62439 0.177145 0.259824 -1.52084 0.154079 0.266873 -1.41742 0.130187 0.270336 
-1.31415 0.106003 0.27009 -1.21107 0.0820743 0.266078 -1.10821 0.0589595 0.258318 
-1.00559 0.037214 0.246899 -0.903263 0.0173847 0.231982 -0.801244 0 0.213801 
-0.699568 -0.0144378 0.192659 -0.598266 -0.0254614 0.168925 -0.497368 -0.0326459 0.143031 
-0.396904 -0.0356168 0.115467 -0.296905 -0.0340566 0.0867747 -0.197402 -0.0277112 0.0575429 
-0.0984233 -0.0163959 0.0283986 -1.93548 0.252203 0.201125 -1.83174 0.235807 0.218797 
-1.72804 0.216957 0.233824 -1.62439 0.196066 0.24586 -1.52084 0.173592 0.254612 
-1.41742 0.150025 0.259852 -1.31415 0.12589 0.261413 -1.21107 0.101729 0.259201 
-1.10821 0.0780988 0.25319 -1.00559 0.0555608 0.243428 -0.903263 0.0346721 0.230034 
-0.801244 0.0159774 0.213204 -0.699568 0 0.193199 -0.598266 -0.0127664 0.170355 
-0.497368 -0.0218659 0.145071 -0.396904 -0.0268884 0.117806 -0.296905 -0.0274767 0.0890771 
-0.197402 -0.0233335 0.0594529 -0.0984233 -0.0142278 0.0295444 -1.93548 0.266528 0.181716 
-1.83174 0.251498 0.200563 -1.72804 0.233824 0.216957 -1.62439 0.213891 0.23052 
-1.52084 0.192133 0.240928 -1.41742 0.169025 0.247913 -1.31415 0.145073 0.251274 
-1.21107 0.120815 0.250874 -1.10821 0.0968013 0.246646 -1.00559 0.0735968 0.238595 
-0.903263 0.0517656 0.2268 -0.801244 0.0318654 0.211413 -0.699568 0.0144378 0.192659 
-0.598266 0 0.170833 -0.497368 -0.0109636 0.146299 -0.396904 -0.0180095 0.119486 
-0.296905 -0.0207431 0.0908814 -0.197402 -0.0188254 0.0610304 -0.0984233 -0.0119802 0.0305251 
-1.93548 0.279362 0.16129 -1.83174 0.278582 0.160839 -1.83174 0.265783 0.181208 
-1.72804 0.263548 0.179684 -1.72804 0.249383 0.198877 -1.62439 0.24586 0.196066 
-1.62439 0.23052 0.213891 -1.52084 0.225896 0.209601 -1.52084 0.209601 0.225896 
-1.41742 0.204086 0.219953 -1.41742 0.187079 0.234589 -1.31415 0.180904 0.226846 
-1.31415 0.163445 0.23973 -1.21107 0.156856 0.230065 -1.21107 0.139225 0.241144 
-1.10821 0.132481 0.229463 -1.10821 0.114962 0.238722 -1.00559 0.108335 0.224961 
-1.00559 0.0912212 0.232428 -0.903263 0.0849903 0.216552 -0.903263 0.0685697 0.222298 
-0.801244 0.063019 0.204303 -0.801244 0.0475753 0.208441 -0.699568 0.0429909 0.188355 
[...]
CELL_DATA 3108
SCALARS STLSolidLabeling float
LOOKUP_TABLE default
0 0 0 0 0 0 0 0 0 
0 0 0 0 0 0 0 0 0 
0 0 0 0 0 0 0 0 0 
0 0 0 0 0 0 0 0 0 
0 0 0 0 0 0 0 0 0 
0 0 0 0 0 0 0 0 0 
0 0 0 0 0 0 0 0 0 
0 0 0 0 0 0 0 0 0 
0 0 0 0 0 0 0 0 0 
0 0 0 0 0 0 0 0 0 
0 0 0 0 0 0 0 0 0 
0 0 0 0 0 0 0 0 0 
0 0 0 0 0 0 0 0 0 
0 0 0 0 0 0 0 0 0 
0 0 0 0 0 0 0 0 0 
0 0 0 0 0 0 0 0 0 
0 0 0 0 0 0 0 0 0 
0 0 0 0 0 0 0 0 0 
0 0 0 0 0 0 0 0 0 
0 0 0 0 0 0 0 0 0 
0 0 0 0 0 0 0 0 0 
0 0 0 0 0 0 0 0 0 
0 0 0 0 0 0 0 0 0 
0 0 0 0 0 0 0 0 0 
0 0 0 0 0 0 0 0 0 
0 0 0 0 0 0 0 0 0 
0 0 0 0 0 0 0 0 0 
0 0 0 0 0 0 0 0 0 
0 0 0 0 0 0 0 0 0 
0 0 0 0 0 0 0 0 0 
0 0 0 0 0 0 0 0 0 
0 0 0 0 0 0 0 0 0 
0 0 0 0 0 0 0 0 0 
0 0 0 0 0 0 0 0 0 
0 0 0 0 0 0 0 0 0 
0 0 0 0 0 0 0 0 0 
0 0 0 0 0 0 0 0 0 
0 0 0 0 0 0 0 0 0 
0 0 0 0 0 0 0 0 0 
0 0 0 0 0 0 0 0 0 
0 0 0 0 0 0 0 0 0 
0 0 0 0 0 0 0 0 0 
0 0 0 0 0 0 0 0 0 
0 0 0 0 0 0 0 0 0 
0 0 0 0 0 0 0 0 0 
0 0 0 0 0 0 0 0 0 
0 0 0 0 0 0 0 0 0 
0 0 0 0 0 0 0 0 0 
0 0 0 0 0 0 0 0 0 
0 0 0 0 0 0 0 0 0 
0 0 0 0 0 0 0 0 0 
0 0 0 0 0 0 0 0 0 
0 0 0 0 0 0 0 0 0 
0 0 0 0 0 0 0 0 0 
0 0 0 0 0 0 0 0 0 
0 0 0 0 0 0 0 0 0 
0 0 0 0 0 0 0 0 0 
0 0 0 0 0 0 0 0 0 
0 0 0 0 0 0 0 0 0 
0 0 0 0 0 0 0 0 0 
0 0 0 0 0 0 0 0 0 
0 0 0 0 0 0 0 0 0 
0 0 0 0 0 0 0 0 0 
0 0 0 0 0 0 0 0 0 
0 0 0 0 0 0 0 0 0 
0 0 0 0 0 0 0 0 0 
0 0 0 0 0 0 0 0 0 
0 0 0 0 0 0 0 0 0 
0 0 0 0 0 0 0 0 0 
0 0 0 0 0 0 0 0 0 
0 0 0 0 0 0 0 0 0 
0 0 0 0 0 0 0 0 0 
0 0 0 0 0 0 0 0 0 
0 0 0 0 0 0 0 0 0 
0 0 0 0 0 0 0 0 0 
0 0 0 0 0 0 0 0 0 
0 0 0 0 0 0 0 0 0 
0 0 0 0 0 0 0 0 0 
0 0 0 0 0 0 0 0 0 
0 0 0 0 0 0 0 0 0 
0 0 0 0 0 0 0 0 0 
0 0 0 0 0 0 0 0 0 
0 0 0 0 0 0 0 0 0 
0 0 0 0 0 0 0 0 0 
0 0 0 0 0 0 0 0 0 
0 0 0 0 0 0 0 0 0 
0 0 0 0 0 0 0 0 0 
0 0 0 0 0 0 0 0 0 
0 0 0 0 0 0 0 0 0 
0 0 0 0 0 0 0 0 0 
0 0 0 0 0 0 0 0 0 
0 0 0 0 0 0 0 0 0 
0 0 0 0 0 0 0 0 0 
0 0 0 0 0 0 0 0 0 
0 0 0 0 0 0 0 0 0 
0 0 0 0 0 0 0 0 0 
0 0 0 0 0 0 0 0 0 
0 0 0 0 0 0 0 0 0 
0 0 0 0 0 0 0 0 0 
0 0 0 0 0 0 0 0 0 
0 0 0 0 0 0 0 0 0 
0 0 0 0 0 0 0 0 0 
0 0 0 0 0 0 0 0 0 
0 0 0 0 0 0 0 0 0 
0 0 0 0 0 0 0 0 0 
0 0 0 0 0 0 0 0 0 
0 0 0 0 0 0 0 0 0 
0 0 0 0 0 0 0 0 0 
0 0 0 0 0 0 0 0 0 
0 0 0 0 0 0 0 0 0 
0 0 0 0 0 0 0 0 0 
0 0 0 0 0 0 0 0 0 
0 0 0 0 0 0 0 0 0 
0 0 0 0 0 0 0 0 0 
0 0 0 0 0 0 0 0 0 
0 0 0 0 0 0 0 0 0 
0 0 0 0 0 0 0 0 0 
0 0 0 0 0 0 0 0 0 
0 0 0 0 0 0 0 0 0 
0 0 0 0 0 0 0 0 0 
0 0 0 0 0 0 0 0 0 
0 0 0 0 0 0 0 0 0 
0 0 0 0 0 0 0 0 0 
0 0 0 0 0 0 0 0 0 
0 0 0 0 0 0 0 0 0 
0 0 0 0 0 0 0 0 0 
0 0 0 0 0 0 0 0 0 
0 0 0 0 0 0 0 0 0 
0 0 0 0 0 0 0 0 0 
0 0 0 0 0 0 0 0 0 
0 0 0 0 0 0 0 0 0 
0 0 0 0 0 0 0 0 0 
0 0 0 0 0 0 0 0 0 
0 0 0 0 0 0 0 0 0 
0 0 0 0 0 0 0 0 0 
0 0 0 0 0 0 0 0 0 
0 0 0 0 0 0 0 0 0 
0 0 0 0 0 0 0 0 0 
0 0 0 0 0 0 0 0 0 
0 0 0 0 0 0 0 0 0 
0 0 0 0 0 0 0 0 0 
0 0 0 0 0 0 0 0 0 
0 0 0 0 0 0 0 0 0 
0 0 0 0 0 0 0 0 0 
0 0 0 0 0 0 0 0 0 
0 0 0 0 0 0 0 0 0 
0 0 0 0 0 0 0 0 0 
0 0 0 0 0 0 0 0 0 
0 0 0 0 0 0 0 0 0 
0 0 0 0 0 0 0 0 0 
0 0 0 0 0 0 0 0 0 
0 0 0 0 0 0 0 0 0 
0 0 0 0 0 0 0 0 0 
0 0 0 0 0 0 0 0 0 
0 0 0 0 0 0 0 0 0 
0 0 0 0 0 0 0 0 0 
0 0 0 0 0 0 0 0 0 
0 0 0 0 0 0 0 0 0 
0 0 0 0 0 0 0 0 0 
0 0 0 0 0 0 0 0 0 
0 0 0 0 0 0 0 0 0 
0 0 0 0 0 0 0 0 0 
0 0 0 0 0 0 0 0 0 
0 0 0 0 0 0 0 0 0 
0 0 0 0 0 0 0 0 0 
0 0 0 0 0 0 0 0 0 
0 0 0 0 0 0 0 0 0 
0 0 0 0 0 0 0 0 0 
0 0 0 0 0 0 0 0 0 
0 0 0 0 0 0 0 0 0 
0 0 0 0 0 0 0 0 0 
0 0 0 0 0 0 0 0 0 
0 0 0 0 0 0 0 0 0 
0 0 0 0 0 0 0 0 0 
0 0 0 0 0 0 0 0 0 
0 0 0 0 0 0 0 0 0 
0 0 0 0 0 0 0 0 0 
0 0 0 0 0 0 0 0 0 
0 0 0 0 0 0 0 0 0 
0 0 0 0 0 0 0 0 0 
0 0 0 0 0 0 0 0 0 
0 0 0 0 0 0 0 0 0 
0 0 0 0 0 0 0 0 0 
0 0 0 0 0 0 0 0 0 
0 0 0 0 0 0 0 0 0 
0 0 0 0 0 0 0 0 0 
0 0 0 0 0 0 0 0 0 
0 0 0 0 0 0 0 0 0 
0 0 0 0 0 0 0 0 0 
0 0 0 0 0 0 0 0 0 
0 0 0 0 0 0 0 0 0 
0 0 0 0 0 0 0 0 0 
0 0 0 0 0 0 0 0 0 
0 0 0 0 0 0 0 0 0 
0 0 0 0 0 0 0 0 0 
0 0 0 0 0 0 0 0 0 
0 0 0 0 0 0 0 0 0 
0 0 0 0 0 0 0 0 0 
0 0 0 0 0 0 0 0 0 
0 0 0 0 0 0 0 0 0 
0 0 0 0 0 0 0 0 0 
0 0 0 0 0 0 0 0 0 
0 0 0 0 0 0 0 0 0 
0 0 0 0 0 0 0 0 0 
0 0 0 0 0 0 0 0 0 
0 0 0 0 0 0 0 0 0 
0 0 0 0 0 0 0 0 0 
0 0 0 0 0 0 0 0 0 
0 0 0 0 0 0 0 0 0 
0 0 0 0 0 0 0 0 0 
0 0 0 0 0 0 0 0 0 
0 0 0 0 0 0 0 0 0 
0 0 0 0 0 0 0 0 0 
0 0 0 0 0 0 0 0 0 
0 0 0 0 0 0 0 0 0 
0 0 0 0 0 0 0 0 0 
0 0 0 0 0 0 0 0 0 
0 0 0 0 0 0 0 0 0 
0 0 0 0 0 0 0 0 0 
0 0 0 0 0 0 0 0 0 
0 0 0 0 0 0 0 0 0 
0 0 0 0 0 0 0 0 0 
0 0 0 0 0 0 0 0 0 
0 0 0 0 0 0 0 0 0 
0 0 0 0 0 0 0 0 0 
0 0 0 0 0 0 0 0 0 
0 0 0 0 0 0 0 0 0 
0 0 0 0 0 0 0 0 0 
0 0 0 0 0 0 0 0 0 
0 0 0 0 0 0 0 0 0 
0 0 0 0 0 0 0 0 0 
0 0 0 0 0 0 0 0 0 
0 0 0 0 0 0 0 0 0 
0 0 0 0 0 0 0 0 0 
0 0 0 0 0 0 0 0 0 
0 0 0 0 0 0 0 0 0 
0 0 0 0 0 0 0 0 0 
0 0 0 0 0 0 0 0 0 
0 0 0 0 0 0 0 0 0 
0 0 0 0 0 0 0 0 0 
0 0 0 0 0 0 0 0 0 
0 0 0 0 0 0 0 0 0 
0 0 0 0 0 0 0 0 0 
0 0 0 0 0 0 0 0 0 
0 0 0 0 0 0 0 0 0 
0 0 0 0 0 0 0 0 0 
0 0 0 0 0 0 0 0 0 
0 0 0 0 0 0 0 0 0 
0 0 0 0 0 0 0 0 0 
0 0 0 0 0 0 0 0 0 
0 0 0 0 0 0 0 0 0 
0 0 0 0 0 0 0 0 0 
0 0 0 0 0 0 0 0 0 
0 0 0 0 0 0 0 0 0 
0 0 0 0 0 0 0 0 0 
0 0 0 0 0 0 0 0 0 
0 0 0 0 0 0 0 0 0 
0 0 0 0 0 0 0 0 0 
0 0 0 0 0 0 0 0 0 
0 0 0 0 0 0 0 0 0 
0 0 0 0 0 0 0 0 0 
0 0 0 0 0 0 0 0 0 
0 0 0 0 0 0 0 0 0 
0 0 0 0 0 0 0 0 0 
0 0 0 0 0 0 0 0 0 
0 0 0 0 0 0 0 0 0 
0 0 0 0 0 0 0 0 0 
0 0 0 0 0 0 0 0 0 
0 0 0 0 0 0 0 0 0 
0 0 0 0 0 0 0 0 0 
0 0 0 0 0 0 0 0 0 
0 0 0 0 0 0 0 0 0 
0 0 0 0 0 0 0 0 0 
0 0 0 0 0 0 0 0 0 
0 0 0 0 0 0 0 0 0 
0 0 0 0 0 0 0 0 0 
0 0 0 0 0 0 0 0 0 
0 0 0 0 0 0 0 0 0 
0 0 0 0 0 0 0 0 0 
0 0 0 0 0 0 0 0 0 
0 0 0 0 0 0 0 0 0 
0 0 0 0 0 0 0 0 0 
0 0 0 0 0 0 0 0 0 
0 0 0 0 0 0 0 0 0 
0 0 0 0 0 0 0 0 0 
0 0 0 0 0 0 0 0 0 
0 0 0 0 0 0 0 0 0 
0 0 0 0 0 0 0 0 0 
0 0 0 0 0 0 0 0 0 
0 0 0 0 0 0 0 0 0 
0 0 0 0 0 0 0 0 0 
0 0 0 0 0 0 0 0 0 
0 0 0 0 0 0 0 0 0 
0 0 0 0 0 0 0 0 0 
0 0 0 0 0 0 0 0 0 
0 0 0 0 0 0 0 0 0 
0 0 0 0 0 0 0 0 0 
0 0 0 0 0 0 0 0 0 
0 0 0 0 0 0 0 0 0 
0 0 0 0 0 0 0 0 0 
0 0 0 0 0 0 0 0 0 
0 0 0 0 0 0 0 0 0 
0 0 0 0 0 0 0 0 0 
0 0 0 0 0 0 0 0 0 
0 0 0 0 0 0 0 0 0 
0 0 0 0 0 0 0 0 0 
0 0 0 0 0 0 0 0 0 
0 0 0 0 0 0 0 0 0 
0 0 0 0 0 0 0 0 0 
0 0 0 0 0 0 0 0 0 
0 0 0 0 0 0 0 0 0 
0 0 0 0 0 0 0 0 0 
0 0 0 0 0 0 0 0 0 
0 0 0 0 0 0 0 0 0 
0 0 0 0 0 0 0 0 0 
0 0 0 0 0 0 0 0 0 
0 0 0 0 0 0 0 0 0 
0 0 0 0 0 0 0 0 0 
0 0 0 0 0 0 0 0 0 
0 0 0 0 0 0 0 0 0 
0 0 0 0 0 0 0 0 0 
0 0 0 0 0 0 0 0 0 
0 0 0 0 0 0 0 0 0 
0 0 0 0 0 0 0 0 0 
0 0 0 0 0 0 0 0 0 
0 0 0 0 0 0 0 0 0 
0 0 0 0 0 0 0 0 0 
0 0 0 0 0 0 0 0 0 
0 0 0 0 0 0 0 0 0 
0 0 0 0 0 0 0 0 0 
0 0 0 0 0 0 0 0 0 
0 0 0 0 0 0 0 0 0 
0 0 0 0 0 0 0 0 0 
0 0 0 0 0 0 0 0 0 
0 0 0 0 0 0 0 0 0 
0 0 0 0 0 0 0 0 0 
0 0 0 0 0 0 0 0 0 
0 0 0 0 0 0 0 0 0 
0 0 0 0 0 0 0 0 0 
0 0 0 0 0 0 0 0 0 
0 0 0 0 0 0 0 0 0 
0 0 0 0 0 0 0 0 0 
0 0 0 0 0 0 0 0 0 
0 0 0 0 0 0 0 0 0 
0 0 0 0 0 0 0 0 0 
0 0 0 
METADATA
INFORMATION 0

