# vtk DataFile Version 3.0
NewPan results file.
ASCII
DATASET POLYDATA
POINTS                   9 float
  0.000000000000E+00  0.000000000000E+00  0.500000000000E+00
  0.000000000000E+00  0.100000000000E+01  0.200000000000E+01
  0.000000000000E+00  0.000000000000E+00  0.200000000000E+01
  0.100000000000E+01  0.200000000000E+01 -0.100000000000E+01
  0.100000000000E+01 -0.100000000000E+01 -0.100000000000E+01
  0.100000000000E+01  0.300000000000E+01  0.000000000000E+00
  0.200000000000E+01  0.300000000000E+01 -0.500000000000E+01
  0.200000000000E+01  0.500000000000E+01  0.900000000000E+01
  0.200000000000E+01 -0.500000000000E+01  0.500000000000E+01
POLYGONS                   3                  12
                   3                   0                   1                   2
                   3                   3                   5                   4
                   3                   6                   7                   8
CELL_DATA                   3
NORMALS normals float
  0.100000000000E+01  0.000000000000E+00  0.000000000000E+00
  0.100000000000E+01 -0.000000000000E+00  0.000000000000E+00
  0.100000000000E+01  0.000000000000E+00  0.000000000000E+00
SCALARS C_p float 1
LOOKUP_TABLE default
  0.180876996070E+01
  0.180876996070E+01
  0.180876996070E+01
SCALARS Mach_surface float 1
LOOKUP_TABLE default
  0.306151588456E-15
  0.306151588456E-15
  0.306151588456E-15
SCALARS Seperation float 1
LOOKUP_TABLE default
  0.000000000000E+00
  0.000000000000E+00
  0.000000000000E+00
SCALARS Shadowing float 1
LOOKUP_TABLE default
  0.000000000000E+00
  0.000000000000E+00
  0.000000000000E+00
VECTORS dC_f float
  0.135657747053E+01  0.000000000000E+00  0.000000000000E+00
  0.271315494105E+01 -0.000000000000E+00  0.000000000000E+00
  0.119378817406E+03  0.000000000000E+00  0.000000000000E+00
VECTORS centroid float
  0.000000000000E+00  0.333333333333E+00  0.150000000000E+01
  0.100000000000E+01  0.133333333333E+01 -0.666666666667E+00
  0.200000000000E+01  0.100000000000E+01  0.300000000000E+01
SCALARS theta float 1
LOOKUP_TABLE default
  0.157079632679E+01
  0.157079632679E+01
  0.157079632679E+01
