# vtk DataFile Version 5.1
vtk output
ASCII
DATASET POLYDATA
POINTS 1051 float
0.968059 0.306461 1.10883 0.96774 0.320813 0.904465 0.974789 0.253745 1.10887 
0.974789 0.253745 0.887095 0.995628 0.189608 0.887095 0.995628 0.189608 0.665321 
1.02935 0.131205 0.665321 1.02935 0.131205 0.443547 1.07447 0.0810892 0.443547 
1.07447 0.0810892 0.221774 1.12903 0.0414504 0.221774 1.12903 0.0414504 0 
1.18114 0.0172714 0 0.968073 0.306162 1.11378 0.968247 0.302725 1.17397 
0.968721 0.295678 1.32359 0.974789 0.253745 1.33064 0.995628 0.189608 1.10887 
1.02935 0.131205 0.887095 1.07447 0.0810892 0.665321 1.12903 0.0414504 0.443547 
1.19064 0.0140211 0.221774 1.19064 0.0140211 0 0.968742 0.2954 1.33061 
0.96907 0.291547 1.44422 0.969276 0.289373 1.53382 0.974789 0.253745 1.55242 
0.995628 0.189608 1.33064 1.02935 0.131205 1.10887 1.07447 0.0810892 0.887095 
1.12903 0.0414504 0.665321 1.19064 0.0140211 0.443547 1.2566 0 0.221774 
1.2566 0 0 1.32404 0 0 0.969305 0.289078 1.54915 
0.969311 0.289017 1.55242 0.969489 0.287269 1.74401 0.969484 0.287312 1.77419 
0.974789 0.253745 1.77419 0.995628 0.189608 1.55242 1.02935 0.131205 1.33064 
1.07447 0.0810892 1.10887 1.12903 0.0414504 0.887095 1.19064 0.0140211 0.665321 
1.2566 0 0.443547 1.32404 0 0.221774 1.39 0.0140211 0 
0.969462 0.287531 1.81817 0.969276 0.289372 1.95388 0.974789 0.253745 1.99596 
0.995628 0.189608 1.77419 1.02935 0.131205 1.55242 1.07447 0.0810892 1.33064 
1.12903 0.0414504 1.10887 1.19064 0.0140211 0.887095 1.2566 0 0.665321 
1.32404 0 0.443547 1.39 0.0140211 0.221774 1.3995 0.0172714 0 
0.969186 0.290302 1.99597 0.969013 0.292184 2.06466 0.968721 0.295677 2.16319 
0.974789 0.253745 2.21774 0.995628 0.189608 1.99596 1.02935 0.131205 1.77419 
1.07447 0.0810892 1.55242 1.12903 0.0414504 1.33064 1.19064 0.0140211 1.10887 
1.2566 0 0.887095 1.32404 0 0.665321 1.39 0.0140211 0.443547 
1.45161 0.0414504 0.221774 1.45161 0.0414504 0 0.968547 0.298015 2.21777 
0.968181 0.303946 2.33399 0.968073 0.306167 2.37198 0.974789 0.253745 2.43951 
0.995628 0.189608 2.21774 1.02935 0.131205 1.99596 1.07447 0.0810892 1.77419 
1.12903 0.0414504 1.55242 1.19064 0.0140211 1.33064 1.2566 0 1.10887 
1.32404 0 0.887095 1.39 0.0140211 0.665321 1.45161 0.0414504 0.443547 
1.50617 0.0810892 0.221774 1.50617 0.0810892 0 1.55129 0.131205 0 
0.967906 0.310458 2.43956 0.96774 0.320813 2.58064 0.967906 0.331167 2.43957 
0.974789 0.387881 2.43951 0.974789 0.387881 2.66128 0.995628 0.452018 2.66128 
0.995628 0.452018 2.88306 1.02935 0.510421 2.88306 1.02935 0.510421 3.10483 
1.07447 0.560537 3.10483 1.07447 0.560537 3.32661 1.12903 0.600175 3.32661 
1.12903 0.600175 3.54838 1.19064 0.627605 3.54838 0.968073 0.335457 2.37201 
0.968248 0.338912 2.31179 0.968547 0.343611 2.21777 0.974789 0.387881 2.21774 
0.995628 0.452018 2.43951 1.02935 0.510421 2.66128 1.07447 0.560537 2.88306 
1.12903 0.600175 3.10483 1.19064 0.627605 3.32661 1.2566 0.641626 3.54838 
0.968721 0.345949 2.16318 0.96907 0.350081 2.04311 0.969186 0.351324 1.99597 
0.974789 0.387881 1.99596 0.995628 0.452018 2.21774 1.02935 0.510421 2.43951 
1.07447 0.560537 2.66128 1.12903 0.600175 2.88306 1.19064 0.627605 3.10483 
1.2566 0.641626 3.32661 1.32404 0.641626 3.54838 0.969276 0.352253 1.95394 
0.96931 0.352598 1.93596 0.969484 0.354314 1.77419 0.974789 0.387881 1.77419 
0.995628 0.452018 1.99596 1.02935 0.510421 2.21774 1.07447 0.560537 2.43951 
1.12903 0.600175 2.66128 1.19064 0.627605 2.88306 1.2566 0.641626 3.10483 
1.32404 0.641626 3.32661 1.39 0.627605 3.54838 0.969489 0.354357 1.744 
0.969459 0.354072 1.66666 0.969311 0.352608 1.5524 0.974789 0.387881 1.55242 
0.995628 0.452018 1.77419 1.02935 0.510421 1.99596 1.07447 0.560537 2.21774 
1.12903 0.600175 2.43951 1.19064 0.627605 2.66128 1.2566 0.641626 2.88306 
1.32404 0.641626 3.10483 1.39 0.627605 3.32661 1.45161 0.600175 3.54838 
0.969276 0.352252 1.53378 0.969007 0.349374 1.42045 0.968742 0.346226 1.33061 
0.974789 0.387881 1.33064 0.995628 0.452018 1.55242 1.02935 0.510421 1.77419 
1.07447 0.560537 1.99596 1.12903 0.600175 2.21774 1.19064 0.627605 2.43951 
1.2566 0.641626 2.66128 1.32404 0.641626 2.88306 1.39 0.627605 3.10483 
1.45161 0.600175 3.32661 1.50617 0.560537 3.54838 0.968721 0.345948 1.32359 
0.968178 0.337624 1.1509 0.968073 0.335463 1.11378 0.974789 0.387881 1.10887 
0.995628 0.452018 1.33064 1.02935 0.510421 1.55242 1.07447 0.560537 1.77419 
1.12903 0.600175 1.99596 1.19064 0.627605 2.21774 1.2566 0.641626 2.43951 
1.32404 0.641626 2.66128 1.39 0.627605 2.88306 1.45161 0.600175 3.10483 
1.50617 0.560537 3.32661 1.55129 0.510421 3.54838 0.968059 0.335166 1.10884 
1.61273 0.310459 2.43957 1.6129 0.320813 2.58064 1.60585 0.253745 2.43951 
1.60585 0.253745 2.66128 1.58501 0.189608 2.66128 1.58501 0.189608 2.88306 
1.55129 0.131205 2.88306 1.55129 0.131205 3.10483 1.50617 0.0810892 3.10483 
1.50617 0.0810892 3.32661 1.45161 0.0414504 3.32661 1.45161 0.0414504 3.54838 
1.39 0.0140211 3.54838 1.61257 0.306169 2.37201 1.61239 0.302713 2.31179 
1.61209 0.298015 2.21777 1.60585 0.253745 2.21774 1.58501 0.189608 2.43951 
1.55129 0.131205 2.66128 1.50617 0.0810892 2.88306 1.45161 0.0414504 3.10483 
1.39 0.0140211 3.32661 1.32404 0 3.54838 1.61192 0.295677 2.16318 
1.61157 0.291545 2.04311 1.61145 0.290301 1.99597 1.60585 0.253745 1.99596 
1.58501 0.189608 2.21774 1.55129 0.131205 2.43951 1.50617 0.0810892 2.66128 
1.45161 0.0414504 2.88306 1.39 0.0140211 3.10483 1.32404 0 3.32661 
1.2566 0 3.54838 1.61136 0.289373 1.95394 1.61133 0.289028 1.93596 
1.61116 0.287312 1.77419 1.60585 0.253745 1.77419 1.58501 0.189608 1.99596 
1.55129 0.131205 2.21774 1.50617 0.0810892 2.43951 1.45161 0.0414504 2.66128 
1.39 0.0140211 2.88306 1.32404 0 3.10483 1.2566 0 3.32661 
1.19064 0.0140211 3.54838 1.61115 0.287269 1.744 1.61118 0.287554 1.66666 
1.61133 0.289018 1.5524 1.60585 0.253745 1.55242 1.58501 0.189608 1.77419 
1.55129 0.131205 1.99596 1.50617 0.0810892 2.21774 1.45161 0.0414504 2.43951 
1.39 0.0140211 2.66128 1.32404 0 2.88306 1.2566 0 3.10483 
1.19064 0.0140211 3.32661 1.12903 0.0414504 3.54838 1.61136 0.289374 1.53378 
1.61163 0.292252 1.42045 1.6119 0.2954 1.33061 1.60585 0.253745 1.33064 
1.58501 0.189608 1.55242 1.55129 0.131205 1.77419 1.50617 0.0810892 1.99596 
1.45161 0.0414504 2.21774 1.39 0.0140211 2.43951 1.32404 0 2.66128 
1.2566 0 2.88306 1.19064 0.0140211 3.10483 1.12903 0.0414504 3.32661 
1.07447 0.0810892 3.54838 1.61192 0.295678 1.32359 1.61246 0.304002 1.1509 
1.61257 0.306163 1.11378 1.60585 0.253745 1.10887 1.58501 0.189608 1.33064 
1.55129 0.131205 1.55242 1.50617 0.0810892 1.77419 1.45161 0.0414504 1.99596 
1.39 0.0140211 2.21774 1.32404 0 2.43951 1.2566 0 2.66128 
1.19064 0.0140211 2.88306 1.12903 0.0414504 3.10483 1.07447 0.0810892 3.32661 
1.02935 0.131205 3.54838 1.61258 0.30646 1.10884 1.6129 0.320813 0.904465 
1.61258 0.335165 1.10883 1.60585 0.387881 1.10887 1.60585 0.387881 0.887095 
1.58501 0.452018 0.887095 1.58501 0.452018 0.665321 1.55129 0.510421 0.665321 
1.55129 0.510421 0.443547 1.50617 0.560537 0.443547 1.50617 0.560537 0.221774 
1.45161 0.600175 0.221774 1.45161 0.600175 0 1.3995 0.624354 0 
1.61257 0.335463 1.11378 1.61239 0.3389 1.17397 1.61192 0.345948 1.32359 
1.60585 0.387881 1.33064 1.58501 0.452018 1.10887 1.55129 0.510421 0.887095 
1.50617 0.560537 0.665321 1.45161 0.600175 0.443547 1.39 0.627605 0.221774 
1.39 0.627605 0 1.6119 0.346226 1.33061 1.61157 0.350079 1.44422 
1.61136 0.352253 1.53382 1.60585 0.387881 1.55242 1.58501 0.452018 1.33064 
1.55129 0.510421 1.10887 1.50617 0.560537 0.887095 1.45161 0.600175 0.665321 
1.39 0.627605 0.443547 1.32404 0.641626 0.221774 1.32404 0.641626 0 
1.2566 0.641626 0 1.61134 0.352548 1.54915 1.61133 0.352608 1.55242 
1.61115 0.354357 1.74401 1.61116 0.354314 1.77419 1.60585 0.387881 1.77419 
1.58501 0.452018 1.55242 1.55129 0.510421 1.33064 1.50617 0.560537 1.10887 
1.45161 0.600175 0.887095 1.39 0.627605 0.665321 1.32404 0.641626 0.443547 
1.2566 0.641626 0.221774 1.19064 0.627605 0 1.61118 0.354095 1.81817 
1.61136 0.352254 1.95388 1.60585 0.387881 1.99596 1.58501 0.452018 1.77419 
1.55129 0.510421 1.55242 1.50617 0.560537 1.33064 1.45161 0.600175 1.10887 
1.39 0.627605 0.887095 1.32404 0.641626 0.665321 1.2566 0.641626 0.443547 
1.19064 0.627605 0.221774 1.18114 0.624354 0 1.61145 0.351324 1.99597 
1.61163 0.349442 2.06466 1.61192 0.345949 2.16319 1.60585 0.387881 2.21774 
1.58501 0.452018 1.99596 1.55129 0.510421 1.77419 1.50617 0.560537 1.55242 
1.45161 0.600175 1.33064 1.39 0.627605 1.10887 1.32404 0.641626 0.887095 
1.2566 0.641626 0.665321 1.19064 0.627605 0.443547 1.12903 0.600175 0.221774 
1.12903 0.600175 0 1.61209 0.343611 2.21777 1.61246 0.337679 2.33399 
1.61257 0.335459 2.37198 1.60585 0.387881 2.43951 1.58501 0.452018 2.21774 
1.55129 0.510421 1.99596 1.50617 0.560537 1.77419 1.45161 0.600175 1.55242 
1.39 0.627605 1.33064 1.32404 0.641626 1.10887 1.2566 0.641626 0.887095 
1.19064 0.627605 0.665321 1.12903 0.600175 0.443547 1.07447 0.560537 0.221774 
1.07447 0.560537 0 1.02935 0.510421 0 1.61273 0.331168 2.43956 
0.96774 0.320813 3.54838 0.974789 0.387881 3.54838 0.96774 0.320813 3.32661 
0.974789 0.387881 3.32661 0.96774 0.320813 3.10483 0.974789 0.387881 3.10483 
0.96774 0.320813 2.88306 0.974789 0.387881 2.88306 0.96774 0.320813 2.66128 
0.995628 0.452018 3.54838 0.995628 0.452018 3.32661 0.995628 0.452018 3.10483 
1.02935 0.510421 3.54838 1.02935 0.510421 3.32661 1.07447 0.560537 3.54838 
1.58501 0.452018 3.54838 1.55129 0.510421 3.32661 1.58501 0.452018 3.32661 
1.55129 0.510421 3.10483 1.58501 0.452018 3.10483 1.55129 0.510421 2.88306 
1.58501 0.452018 2.88306 1.55129 0.510421 2.66128 1.58501 0.452018 2.66128 
1.55129 0.510421 2.43951 1.58501 0.452018 2.43951 1.55129 0.510421 2.21774 
1.60585 0.387881 3.54838 1.60585 0.387881 3.32661 1.60585 0.387881 3.10483 
1.60585 0.387881 2.88306 1.60585 0.387881 2.66128 1.6129 0.320813 3.54838 
1.6129 0.320813 3.32661 1.6129 0.320813 3.10483 1.6129 0.320813 2.88306 
[...]
CELL_DATA 2062
SCALARS STLSolidLabeling float
LOOKUP_TABLE default
0 0 0 0 0 0 0 0 0 
0 0 0 0 0 0 0 0 0 
0 0 0 0 0 0 0 0 0 
0 0 0 0 0 0 0 0 0 
0 0 0 0 0 0 0 0 0 
0 0 0 0 0 0 0 0 0 
0 0 0 0 0 0 0 0 0 
0 0 0 0 0 0 0 0 0 
0 0 0 0 0 0 0 0 0 
0 0 0 0 0 0 0 0 0 
0 0 0 0 0 0 0 0 0 
0 0 0 0 0 0 0 0 0 
0 0 0 0 0 0 0 0 0 
0 0 0 0 0 0 0 0 0 
0 0 0 0 0 0 0 0 0 
0 0 0 0 0 0 0 0 0 
0 0 0 0 0 0 0 0 0 
0 0 0 0 0 0 0 0 0 
0 0 0 0 0 0 0 0 0 
0 0 0 0 0 0 0 0 0 
0 0 0 0 0 0 0 0 0 
0 0 0 0 0 0 0 0 0 
0 0 0 0 0 0 0 0 0 
0 0 0 0 0 0 0 0 0 
0 0 0 0 0 0 0 0 0 
0 0 0 0 0 0 0 0 0 
0 0 0 0 0 0 0 0 0 
0 0 0 0 0 0 0 0 0 
0 0 0 0 0 0 0 0 0 
0 0 0 0 0 0 0 0 0 
0 0 0 0 0 0 0 0 0 
0 0 0 0 0 0 0 0 0 
0 0 0 0 0 0 0 0 0 
0 0 0 0 0 0 0 0 0 
0 0 0 0 0 0 0 0 0 
0 0 0 0 0 0 0 0 0 
0 0 0 0 0 0 0 0 0 
0 0 0 0 0 0 0 0 0 
0 0 0 0 0 0 0 0 0 
0 0 0 0 0 0 0 0 0 
0 0 0 0 0 0 0 0 0 
0 0 0 0 0 0 0 0 0 
0 0 0 0 0 0 0 0 0 
0 0 0 0 0 0 0 0 0 
0 0 0 0 0 0 0 0 0 
0 0 0 0 0 0 0 0 0 
0 0 0 0 0 0 0 0 0 
0 0 0 0 0 0 0 0 0 
0 0 0 0 0 0 0 0 0 
0 0 0 0 0 0 0 0 0 
0 0 0 0 0 0 0 0 0 
0 0 0 0 0 0 0 0 0 
0 0 0 0 0 0 0 0 0 
0 0 0 0 0 0 0 0 0 
0 0 0 0 0 0 0 0 0 
0 0 0 0 0 0 0 0 0 
0 0 0 0 0 0 0 0 0 
0 0 0 0 0 0 0 0 0 
0 0 0 0 0 0 0 0 0 
0 0 0 0 0 0 0 0 0 
0 0 0 0 0 0 0 0 0 
0 0 0 0 0 0 0 0 0 
0 0 0 0 0 0 0 0 0 
0 0 0 0 0 0 0 0 0 
0 0 0 0 0 0 0 0 0 
0 0 0 0 0 0 0 0 0 
0 0 0 0 0 0 0 0 0 
0 0 0 0 0 0 0 0 0 
0 0 0 0 0 0 0 0 0 
0 0 0 0 0 0 0 0 0 
0 0 0 0 0 0 0 0 0 
0 0 0 0 0 0 0 0 0 
0 0 0 0 0 0 0 0 0 
0 0 0 0 0 0 0 0 0 
0 0 0 0 0 0 0 0 0 
0 0 0 0 0 0 0 0 0 
0 0 0 0 0 0 0 0 0 
0 0 0 0 0 0 0 0 0 
0 0 0 0 0 0 0 0 0 
0 0 0 0 0 0 0 0 0 
0 0 0 0 0 0 0 0 0 
0 0 0 0 0 0 0 0 0 
0 0 0 0 0 0 0 0 0 
0 0 0 0 0 0 0 0 0 
0 0 0 0 0 0 0 0 0 
0 0 0 0 0 0 0 0 0 
0 0 0 0 0 0 0 0 0 
0 0 0 0 0 0 0 0 0 
0 0 0 0 0 0 0 0 0 
0 0 0 0 0 0 0 0 0 
0 0 0 0 0 0 0 0 0 
0 0 0 0 0 0 0 0 0 
0 0 0 0 0 0 0 0 0 
0 0 0 0 0 0 0 0 0 
0 0 0 0 0 0 0 0 0 
0 0 0 0 0 0 0 0 0 
0 0 0 0 0 0 0 0 0 
0 0 0 0 0 0 0 0 0 
0 0 0 0 0 0 0 0 0 
0 0 0 0 0 0 0 0 0 
0 0 0 0 0 0 0 0 0 
0 0 0 0 0 0 0 0 0 
0 0 0 0 0 0 0 0 0 
0 0 0 0 0 0 0 0 0 
0 0 0 0 0 0 0 0 0 
0 0 0 0 0 0 0 0 0 
0 0 0 0 0 0 0 0 0 
0 0 0 0 0 0 0 0 0 
0 0 0 0 0 0 0 0 0 
0 0 0 0 0 0 0 0 0 
0 0 0 0 0 0 0 0 0 
0 0 0 0 0 0 0 0 0 
0 0 0 0 0 0 0 0 0 
0 0 0 0 0 0 0 0 0 
0 0 0 0 0 0 0 0 0 
0 0 0 0 0 0 0 0 0 
0 0 0 0 0 0 0 0 0 
0 0 0 0 0 0 0 0 0 
0 0 0 0 0 0 0 0 0 
0 0 0 0 0 0 0 0 0 
0 0 0 0 0 0 0 0 0 
0 0 0 0 0 0 0 0 0 
0 0 0 0 0 0 0 0 0 
0 0 0 0 0 0 0 0 0 
0 0 0 0 0 0 0 0 0 
0 0 0 0 0 0 0 0 0 
0 0 0 0 0 0 0 0 0 
0 0 0 0 0 0 0 0 0 
0 0 0 0 0 0 0 0 0 
0 0 0 0 0 0 0 0 0 
0 0 0 0 0 0 0 0 0 
0 0 0 0 0 0 0 0 0 
0 0 0 0 0 0 0 0 0 
0 0 0 0 0 0 0 0 0 
0 0 0 0 0 0 0 0 0 
0 0 0 0 0 0 0 0 0 
0 0 0 0 0 0 0 0 0 
0 0 0 0 0 0 0 0 0 
0 0 0 0 0 0 0 0 0 
0 0 0 0 0 0 0 0 0 
0 0 0 0 0 0 0 0 0 
0 0 0 0 0 0 0 0 0 
0 0 0 0 0 0 0 0 0 
0 0 0 0 0 0 0 0 0 
0 0 0 0 0 0 0 0 0 
0 0 0 0 0 0 0 0 0 
0 0 0 0 0 0 0 0 0 
0 0 0 0 0 0 0 0 0 
0 0 0 0 0 0 0 0 0 
0 0 0 0 0 0 0 0 0 
0 0 0 0 0 0 0 0 0 
0 0 0 0 0 0 0 0 0 
0 0 0 0 0 0 0 0 0 
0 0 0 0 0 0 0 0 0 
0 0 0 0 0 0 0 0 0 
0 0 0 0 0 0 0 0 0 
0 0 0 0 0 0 0 0 0 
0 0 0 0 0 0 0 0 0 
0 0 0 0 0 0 0 0 0 
0 0 0 0 0 0 0 0 0 
0 0 0 0 0 0 0 0 0 
0 0 0 0 0 0 0 0 0 
0 0 0 0 0 0 0 0 0 
0 0 0 0 0 0 0 0 0 
0 0 0 0 0 0 0 0 0 
0 0 0 0 0 0 0 0 0 
0 0 0 0 0 0 0 0 0 
0 0 0 0 0 0 0 0 0 
0 0 0 0 0 0 0 0 0 
0 0 0 0 0 0 0 0 0 
0 0 0 0 0 0 0 0 0 
0 0 0 0 0 0 0 0 0 
0 0 0 0 0 0 0 0 0 
0 0 0 0 0 0 0 0 0 
0 0 0 0 0 0 0 0 0 
0 0 0 0 0 0 0 0 0 
0 0 0 0 0 0 0 0 0 
0 0 0 0 0 0 0 0 0 
0 0 0 0 0 0 0 0 0 
0 0 0 0 0 0 0 0 0 
0 0 0 0 0 0 0 0 0 
0 0 0 0 0 0 0 0 0 
0 0 0 0 0 0 0 0 0 
0 0 0 0 0 0 0 0 0 
0 0 0 0 0 0 0 0 0 
0 0 0 0 0 0 0 0 0 
0 0 0 0 0 0 0 0 0 
0 0 0 0 0 0 0 0 0 
0 0 0 0 0 0 0 0 0 
0 0 0 0 0 0 0 0 0 
0 0 0 0 0 0 0 0 0 
0 0 0 0 0 0 0 0 0 
0 0 0 0 0 0 0 0 0 
0 0 0 0 0 0 0 0 0 
0 0 0 0 0 0 0 0 0 
0 0 0 0 0 0 0 0 0 
0 0 0 0 0 0 0 0 0 
0 0 0 0 0 0 0 0 0 
0 0 0 0 0 0 0 0 0 
0 0 0 0 0 0 0 0 0 
0 0 0 0 0 0 0 0 0 
0 0 0 0 0 0 0 0 0 
0 0 0 0 0 0 0 0 0 
0 0 0 0 0 0 0 0 0 
0 0 0 0 0 0 0 0 0 
0 0 0 0 0 0 0 0 0 
0 0 0 0 0 0 0 0 0 
0 0 0 0 0 0 0 0 0 
0 0 0 0 0 0 0 0 0 
0 0 0 0 0 0 0 0 0 
0 0 0 0 0 0 0 0 0 
0 0 0 0 0 0 0 0 0 
0 0 0 0 0 0 0 0 0 
0 0 0 0 0 0 0 0 0 
0 0 0 0 0 0 0 0 0 
0 0 0 0 0 0 0 0 0 
0 0 0 0 0 0 0 0 0 
0 0 0 0 0 0 0 0 0 
0 0 0 0 0 0 0 0 0 
0 0 0 0 0 0 0 0 0 
0 0 0 0 0 0 0 0 0 
0 0 0 0 0 0 0 0 0 
0 0 0 0 0 0 0 0 0 
0 0 0 0 0 0 0 0 0 
0 0 0 0 0 0 0 0 0 
0 0 0 0 0 0 0 0 0 
0 0 0 0 0 0 0 0 0 
0 0 0 0 0 0 0 0 0 
0 0 0 0 0 0 0 0 0 
0 
METADATA
INFORMATION 0

